REMARK SMILES CC(C)[NH2+]C[C@H](O)COc1cccc2[nH]c3ccccc3c12
REMARK SMILES IDX 6 1 7 2 5 4 4 5 2 8 1 9 3 10 8 11 9 12 10 13 11 14 22 15
REMARK SMILES IDX 12 16 14 17 21 18 13 19 15 20 16 21 20 22 17 23 19 24 18 25
REMARK H PARENT 7 3 4 6 4 7 15 26
ROOT
ATOM      1 C16  CAU A   1     -32.267  10.230   8.041  1.00  0.00    +0.206 C 
ENDROOT
BRANCH   1   2
ATOM      2 O17  CAU A   1     -33.477  10.957   8.170  1.00  0.00    -0.384 OA
ATOM      3  H   UNL     1     -33.686  11.083   9.130  1.00  0.00    +0.211 HD
ENDBRANCH   1   2
BRANCH   1   4
ATOM      4 C18  CAU A   1     -32.478   8.951   7.225  1.00  0.00    +0.296 C 
BRANCH   4   5
ATOM      5 N19  CAU A   1     -33.702   8.250   7.600  1.00  0.00    -0.342 N 
ATOM      6  H   UNL     1     -33.883   8.486   8.586  1.00  0.00    +0.346 HD
ATOM      7  H   UNL     1     -34.371   8.573   6.887  1.00  0.00    +0.346 HD
BRANCH   5   8
ATOM      8 C20  CAU A   1     -33.806   6.805   7.498  1.00  0.00    +0.176 C 
ATOM      9 C21  CAU A   1     -33.533   6.385   6.055  1.00  0.00    +0.075 C 
ATOM     10 C22  CAU A   1     -35.184   6.350   7.988  1.00  0.00    +0.075 C 
ENDBRANCH   5   8
ENDBRANCH   4   5
ENDBRANCH   1   4
BRANCH   1  11
ATOM     11 C15  CAU A   1     -31.242  11.105   7.364  1.00  0.00    +0.267 C 
BRANCH  11  12
ATOM     12 O14  CAU A   1     -30.049  10.367   7.182  1.00  0.00    -0.490 OA
BRANCH  12  13
ATOM     13 C13  CAU A   1     -28.931  10.857   6.581  1.00  0.00    +0.129 A 
ATOM     14 C12  CAU A   1     -28.911  12.133   6.005  1.00  0.00    +0.047 A 
ATOM     15 C9   CAU A   1     -27.768  10.108   6.517  1.00  0.00    +0.049 A 
ATOM     16 C11  CAU A   1     -27.768  12.628   5.393  1.00  0.00    +0.006 A 
ATOM     17 C8   CAU A   1     -26.565  10.625   5.875  1.00  0.00    +0.050 A 
ATOM     18 C4   CAU A   1     -27.482   8.863   6.976  1.00  0.00    +0.011 A 
ATOM     19 C10  CAU A   1     -26.608  11.875   5.332  1.00  0.00    +0.027 A 
ATOM     20 N7   CAU A   1     -25.593   9.657   5.974  1.00  0.00    -0.354 N 
ATOM     21 C3   CAU A   1     -26.096   8.561   6.637  1.00  0.00    +0.047 A 
ATOM     22 C5   CAU A   1     -28.269   7.948   7.652  1.00  0.00    +0.011 A 
ATOM     23 C2   CAU A   1     -25.589   7.338   7.009  1.00  0.00    +0.027 A 
ATOM     24 C6   CAU A   1     -27.717   6.731   8.006  1.00  0.00    +0.001 A 
ATOM     25 C1   CAU A   1     -26.395   6.432   7.689  1.00  0.00    +0.002 A 
ATOM     26  H   UNL     1     -24.634   9.740   5.607  1.00  0.00    +0.167 HD
ENDBRANCH  12  13
ENDBRANCH  11  12
ENDBRANCH   1  11
TORSDOF 7
