REMARK SMILES CC(C)[NH2+]C[C@H](O)COc1cccc2[nH]c3ccccc3c12
REMARK SMILES IDX 6 1 5 2 4 3 2 6 1 7 3 8 7 9 8 11 9 12 10 13 11 14 22 15
REMARK SMILES IDX 12 16 21 17 14 18 13 19 20 20 16 21 15 22 19 23 17 24 18 25
REMARK H PARENT 4 4 4 5 7 10 15 26
ROOT
ATOM      1  C   UNL     1       1.250   2.152  -0.228  1.00  0.00    +0.206 C 
ENDROOT
BRANCH   1   2
ATOM      2  C   UNL     1       2.515   1.488   0.335  1.00  0.00    +0.296 C 
BRANCH   2   3
ATOM      3  N   UNL     1       2.794   0.175  -0.352  1.00  0.00    -0.342 N 
ATOM      4  H   UNL     1       3.120   0.367  -1.311  1.00  0.00    +0.346 HD
ATOM      5  H   UNL     1       1.917  -0.355  -0.460  1.00  0.00    +0.346 HD
BRANCH   3   6
ATOM      6  C   UNL     1       3.792  -0.721   0.337  1.00  0.00    +0.176 C 
ATOM      7  C   UNL     1       5.175  -0.083   0.315  1.00  0.00    +0.075 C 
ATOM      8  C   UNL     1       3.792  -2.063  -0.391  1.00  0.00    +0.075 C 
ENDBRANCH   3   6
ENDBRANCH   2   3
ENDBRANCH   1   2
BRANCH   1   9
ATOM      9  O   UNL     1       1.338   3.561  -0.005  1.00  0.00    -0.384 OA
ATOM     10  H   UNL     1       0.464   3.946  -0.225  1.00  0.00    +0.211 HD
ENDBRANCH   1   9
BRANCH   1  11
ATOM     11  C   UNL     1      -0.019   1.606   0.440  1.00  0.00    +0.267 C 
BRANCH  11  12
ATOM     12  O   UNL     1      -1.162   2.122  -0.259  1.00  0.00    -0.490 OA
BRANCH  12  13
ATOM     13  C   UNL     1      -1.716   1.148  -1.070  1.00  0.00    +0.129 A 
ATOM     14  C   UNL     1      -1.546   1.297  -2.451  1.00  0.00    +0.047 A 
ATOM     15  C   UNL     1      -2.471   0.067  -0.559  1.00  0.00    +0.049 A 
ATOM     16  C   UNL     1      -2.057   0.346  -3.329  1.00  0.00    +0.006 A 
ATOM     17  C   UNL     1      -2.920  -0.337   0.744  1.00  0.00    +0.011 A 
ATOM     18  C   UNL     1      -2.954  -0.875  -1.471  1.00  0.00    +0.050 A 
ATOM     19  C   UNL     1      -2.757  -0.767  -2.855  1.00  0.00    +0.027 A 
ATOM     20  C   UNL     1      -2.816   0.212   2.041  1.00  0.00    +0.011 A 
ATOM     21  C   UNL     1      -3.620  -1.536   0.592  1.00  0.00    +0.047 A 
ATOM     22  N   UNL     1      -3.632  -1.831  -0.751  1.00  0.00    -0.354 N 
ATOM     23  C   UNL     1      -3.390  -0.458   3.128  1.00  0.00    +0.001 A 
ATOM     24  C   UNL     1      -4.197  -2.222   1.668  1.00  0.00    +0.027 A 
ATOM     25  C   UNL     1      -4.068  -1.660   2.941  1.00  0.00    +0.002 A 
ATOM     26  H   UNL     1      -4.113  -2.622  -1.156  1.00  0.00    +0.167 HD
ENDBRANCH  12  13
ENDBRANCH  11  12
ENDBRANCH   1  11
TORSDOF 7
