REMARK SMILES C[NH+]1CC[C@]23c4c5ccc(O)c4O[C@H]2[C@@H](O)C=C[C@H]3[C@H]1C5
REMARK SMILES IDX 1 1 2 2 3 3 4 4 5 5 6 6 7 7 8 8 9 9 10 10 12 11 13 12 14 13
REMARK SMILES IDX 15 14 17 15 18 16 19 17 20 18 21 19 16 21 11 23
REMARK H PARENT 2 20 16 22 11 24
ROOT
ATOM      1  C   UNL     1      -3.619  -1.456   0.526  1.00  0.00    +0.333 C 
ATOM      2  N   UNL     1      -2.240  -0.857   0.568  1.00  0.00    -0.334 N 
ATOM      3  C   UNL     1      -2.090   0.139   1.686  1.00  0.00    +0.263 C 
ATOM      4  C   UNL     1      -0.655   0.667   1.757  1.00  0.00    +0.078 C 
ATOM      5  C   UNL     1      -0.001   0.877   0.365  1.00  0.00    +0.056 C 
ATOM      6  C   UNL     1       0.849  -0.315   0.045  1.00  0.00    +0.013 A 
ATOM      7  C   UNL     1       0.502  -1.427  -0.704  1.00  0.00    -0.034 A 
ATOM      8  C   UNL     1       1.473  -2.420  -0.858  1.00  0.00    +0.008 A 
ATOM      9  C   UNL     1       2.758  -2.258  -0.292  1.00  0.00    +0.050 A 
ATOM     10  C   UNL     1       3.095  -1.083   0.385  1.00  0.00    +0.158 A 
ATOM     11  C   UNL     1       2.131  -0.111   0.519  1.00  0.00    +0.165 A 
ATOM     12  O   UNL     1       2.303   1.175   0.990  1.00  0.00    -0.482 OA
ATOM     13  C   UNL     1       1.159   1.893   0.412  1.00  0.00    +0.217 C 
ATOM     14  C   UNL     1       1.549   2.525  -0.965  1.00  0.00    +0.178 C 
ATOM     15  C   UNL     1       0.547   2.335  -2.067  1.00  0.00    +0.004 C 
ATOM     16  C   UNL     1      -0.615   1.673  -1.969  1.00  0.00    -0.018 C 
ATOM     17  C   UNL     1      -1.096   1.054  -0.689  1.00  0.00    +0.085 C 
ATOM     18  C   UNL     1      -1.779  -0.346  -0.836  1.00  0.00    +0.196 C 
ATOM     19  C   UNL     1      -0.824  -1.430  -1.415  1.00  0.00    +0.101 C 
ATOM     20  H   UNL     1      -1.607  -1.631   0.824  1.00  0.00    +0.348 HD
ENDROOT
BRANCH  14  21
ATOM     21  O   UNL     1       2.774   2.013  -1.482  1.00  0.00    -0.385 OA
ATOM     22  H   UNL     1       3.351   1.823  -0.716  1.00  0.00    +0.211 HD
ENDBRANCH  14  21
BRANCH  10  23
ATOM     23  O   UNL     1       4.347  -0.860   0.863  1.00  0.00    -0.504 OA
ATOM     24  H   UNL     1       4.925  -1.601   0.615  1.00  0.00    +0.293 HD
ENDBRANCH  10  23
TORSDOF 2
