REMARK SMILES C[NH+]1CC[C@]23c4c5ccc(O)c4O[C@H]2[C@@H](O)C=C[C@H]3[C@H]1C5
REMARK SMILES IDX 8 1 21 2 7 3 6 4 5 5 19 6 4 7 3 8 1 9 9 10 10 11 12 12 14 13
REMARK SMILES IDX 15 14 17 15 18 16 20 17 2 18 13 19 11 21 16 23
REMARK H PARENT 2 20 11 22 16 24
ROOT
ATOM      1 C1   MOI A   1     138.143 123.059 135.080  1.00  0.00    +0.008 A 
ATOM      2 C2   MOI A   1     139.578 124.089 133.211  1.00  0.00    +0.101 C 
ATOM      3 C3   MOI A   1     138.680 124.167 134.420  1.00  0.00    -0.034 A 
ATOM      4 C4   MOI A   1     138.353 125.417 134.916  1.00  0.00    +0.013 A 
ATOM      5 C5   MOI A   1     138.815 126.743 134.388  1.00  0.00    +0.056 C 
ATOM      6 C6   MOI A   1     140.252 126.574 133.873  1.00  0.00    +0.085 C 
ATOM      7 C7   MOI A   1     137.909 127.289 133.255  1.00  0.00    +0.078 C 
ATOM      8 C8   MOI A   1     138.067 126.543 131.913  1.00  0.00    +0.263 C 
ATOM      9 C9   MOI A   1     139.559 125.404 130.359  1.00  0.00    +0.333 C 
ATOM     10 C10  MOI A   1     137.317 123.239 136.210  1.00  0.00    +0.050 A 
ATOM     11 C11  MOI A   1     137.018 124.522 136.693  1.00  0.00    +0.158 A 
ATOM     12 C12  MOI A   1     137.558 125.598 136.022  1.00  0.00    +0.165 A 
ATOM     13 C13  MOI A   1     138.592 127.540 135.689  1.00  0.00    +0.217 C 
ATOM     14 C14  MOI A   1     139.829 127.626 136.629  1.00  0.00    +0.178 C 
ATOM     15 C15  MOI A   1     141.070 126.857 136.229  1.00  0.00    +0.004 C 
ATOM     16 C16  MOI A   1     141.258 126.371 134.985  1.00  0.00    -0.018 C 
ATOM     17 C17  MOI A   1     140.167 125.476 132.753  1.00  0.00    +0.196 C 
ATOM     18 N1   MOI A   1     139.448 126.120 131.625  1.00  0.00    -0.334 N 
ATOM     19 O3   MOI A   1     137.410 126.926 136.322  1.00  0.00    -0.482 OA
ATOM     20  H   UNL     1     139.969 127.000 131.504  1.00  0.00    +0.348 HD
ENDROOT
BRANCH  11  21
ATOM     21 O1   MOI A   1     136.223 124.687 137.779  1.00  0.00    -0.504 OA
ATOM     22  H   UNL     1     136.020 125.598 138.110  1.00  0.00    +0.293 HD
ENDBRANCH  11  21
BRANCH  14  23
ATOM     23 O2   MOI A   1     139.450 127.290 137.963  1.00  0.00    -0.385 OA
ATOM     24  H   UNL     1     140.015 127.791 138.603  1.00  0.00    +0.211 HD
ENDBRANCH  14  23
TORSDOF 2
