REMARK SMILES Fc1ccc([C@@H]2CC[NH2+]C[C@H]2COc2ccc3c(c2)OCO3)cc1
REMARK SMILES IDX 6 1 7 2 8 3 9 4 10 5 11 6 5 9 2 10 3 11 24 12 4 13 23 14
REMARK SMILES IDX 1 15 12 16 13 17 14 18 15 19 19 20 16 21 18 22 17 23 20 24
REMARK SMILES IDX 22 25 21 26
REMARK H PARENT 9 7 9 8
ROOT
ATOM      1  C   UNL     1      -1.811  -0.890  -0.318  1.00  0.00    +0.037 C 
ATOM      2  C   UNL     1      -1.602  -2.003   0.739  1.00  0.00    +0.070 C 
ATOM      3  C   UNL     1      -1.651  -1.516   2.183  1.00  0.00    +0.261 C 
ATOM      4  N   UNL     1      -0.750  -0.347   2.366  1.00  0.00    -0.346 N 
ATOM      5  C   UNL     1      -1.042   0.784   1.438  1.00  0.00    +0.268 C 
ATOM      6  C   UNL     1      -0.891   0.329  -0.015  1.00  0.00    +0.089 C 
ATOM      7  H   UNL     1      -0.844  -0.003   3.333  1.00  0.00    +0.346 HD
ATOM      8  H   UNL     1       0.240  -0.624   2.284  1.00  0.00    +0.346 HD
ENDROOT
BRANCH   1   9
ATOM      9  C   UNL     1      -3.259  -0.456  -0.559  1.00  0.00    -0.044 A 
ATOM     10  C   UNL     1      -5.874   0.413  -1.132  1.00  0.00    +0.123 A 
ATOM     11  C   UNL     1      -5.654  -0.484  -0.097  1.00  0.00    +0.039 A 
ATOM     12  C   UNL     1      -4.819   0.870  -1.904  1.00  0.00    +0.039 A 
ATOM     13  C   UNL     1      -4.355  -0.924   0.183  1.00  0.00    +0.007 A 
ATOM     14  C   UNL     1      -3.523   0.431  -1.625  1.00  0.00    +0.007 A 
ATOM     15  F   UNL     1      -7.118   0.829  -1.394  1.00  0.00    -0.207 F 
ENDBRANCH   1   9
BRANCH   6  16
ATOM     16  C   UNL     1       0.573   0.023  -0.395  1.00  0.00    +0.239 C 
BRANCH  16  17
ATOM     17  O   UNL     1       1.388   1.100   0.061  1.00  0.00    -0.493 OA
BRANCH  17  18
ATOM     18  C   UNL     1       2.734   1.003  -0.171  1.00  0.00    +0.123 A 
ATOM     19  C   UNL     1       3.489   2.084   0.330  1.00  0.00    +0.050 A 
ATOM     20  C   UNL     1       3.375  -0.046  -0.835  1.00  0.00    +0.097 A 
ATOM     21  C   UNL     1       4.879   2.125   0.180  1.00  0.00    +0.054 A 
ATOM     22  C   UNL     1       4.748   0.021  -0.968  1.00  0.00    +0.169 A 
ATOM     23  C   UNL     1       5.480   1.074  -0.475  1.00  0.00    +0.166 A 
ATOM     24  O   UNL     1       5.528  -0.911  -1.579  1.00  0.00    -0.453 OA
ATOM     25  O   UNL     1       6.810   0.939  -0.714  1.00  0.00    -0.454 OA
ATOM     26  C   UNL     1       6.835  -0.310  -1.435  1.00  0.00    +0.468 C 
ENDBRANCH  17  18
ENDBRANCH  16  17
ENDBRANCH   6  16
TORSDOF 4
