REMARK SMILES Fc1ccc([C@@H]2CC[NH2+]C[C@H]2COc2ccc3c(c2)OCO3)cc1
REMARK SMILES IDX 8 1 7 2 10 3 9 4 11 5 6 6 5 9 2 10 3 11 24 12 4 13 23 14
REMARK SMILES IDX 1 15 12 16 13 17 14 18 19 19 15 20 18 21 16 22 17 23 20 24
REMARK SMILES IDX 22 25 21 26
REMARK H PARENT 9 7 9 8
ROOT
ATOM      1 CAI  8PR A   1     -35.542 -23.945  -1.274  1.00  0.00    +0.261 C 
ATOM      2 CAJ  8PR A   1     -35.282 -22.446  -1.125  1.00  0.00    +0.070 C 
ATOM      3 CAK  8PR A   1     -34.641 -24.282   0.978  1.00  0.00    +0.268 C 
ATOM      4 NAN  8PR A   1     -35.668 -24.661   0.005  1.00  0.00    -0.346 N 
ATOM      5 CAW  8PR A   1     -34.622 -22.756   1.153  1.00  0.00    +0.089 C 
ATOM      6 CAX  8PR A   1     -34.229 -22.149  -0.123  1.00  0.00    +0.037 C 
ATOM      7  H   UNL     1     -35.591 -25.672  -0.176  1.00  0.00    +0.346 HD
ATOM      8  H   UNL     1     -36.582 -24.411   0.409  1.00  0.00    +0.346 HD
ENDROOT
BRANCH   6   9
ATOM      9 CAT  8PR A   1     -33.998 -20.589   0.033  1.00  0.00    -0.044 A 
ATOM     10 CAR  8PR A   1     -33.643 -17.862   0.285  1.00  0.00    +0.123 A 
ATOM     11 CAB  8PR A   1     -34.848 -18.384  -0.143  1.00  0.00    +0.039 A 
ATOM     12 CAC  8PR A   1     -32.635 -18.694   0.583  1.00  0.00    +0.039 A 
ATOM     13 CAE  8PR A   1     -35.028 -19.737  -0.266  1.00  0.00    +0.007 A 
ATOM     14 CAF  8PR A   1     -32.811 -20.066   0.459  1.00  0.00    +0.007 A 
ATOM     15 FAA  8PR A   1     -33.511 -16.554   0.396  1.00  0.00    -0.207 F 
ENDBRANCH   6   9
BRANCH   5  16
ATOM     16 CAM  8PR A   1     -33.686 -22.311   2.285  1.00  0.00    +0.239 C 
BRANCH  16  17
ATOM     17 OAO  8PR A   1     -32.617 -23.215   2.409  1.00  0.00    -0.493 OA
BRANCH  17  18
ATOM     18 CAS  8PR A   1     -31.703 -22.914   3.507  1.00  0.00    +0.123 A 
ATOM     19 CAH  8PR A   1     -30.946 -21.881   2.958  1.00  0.00    +0.097 A 
ATOM     20 CAD  8PR A   1     -31.451 -23.378   4.770  1.00  0.00    +0.050 A 
ATOM     21 CAV  8PR A   1     -29.938 -21.315   3.707  1.00  0.00    +0.169 A 
ATOM     22 CAG  8PR A   1     -30.425 -22.791   5.513  1.00  0.00    +0.054 A 
ATOM     23 CAU  8PR A   1     -29.677 -21.766   4.977  1.00  0.00    +0.166 A 
ATOM     24 OAQ  8PR A   1     -29.015 -20.263   3.437  1.00  0.00    -0.453 OA
ATOM     25 OAP  8PR A   1     -28.591 -20.995   5.504  1.00  0.00    -0.454 OA
ATOM     26 CAL  8PR A   1     -28.026 -20.303   4.436  1.00  0.00    +0.468 C 
ENDBRANCH  17  18
ENDBRANCH  16  17
ENDBRANCH   5  16
TORSDOF 4
