REMARK SMILES C[C@H](CS)C(=O)N1CCCC1C(=O)[O-]
REMARK SMILES IDX 5 1 6 2 7 3 11 4 10 5 9 6 8 7 12 8 13 9 14 10 2 11 1 12 3 13
REMARK SMILES IDX 4 14
REMARK H PARENT 4 15
ROOT
ATOM      1 C4   MCO A   1      41.014  34.687  44.754  1.00  0.00    +0.226 C 
ATOM      2 O1   MCO A   1      39.872  34.401  45.087  1.00  0.00    -0.275 OA
ENDROOT
BRANCH   1   3
ATOM      3 N    MCO A   1      41.351  34.887  43.471  1.00  0.00    -0.334 N 
ATOM      4 C8   MCO A   1      40.848  34.344  42.347  1.00  0.00    +0.131 C 
ATOM      5 C7   MCO A   1      41.480  34.830  41.034  1.00  0.00    +0.033 C 
ATOM      6 C6   MCO A   1      42.829  35.194  41.508  1.00  0.00    +0.024 C 
ATOM      7 C5   MCO A   1      42.376  35.775  42.848  1.00  0.00    +0.120 C 
BRANCH   4   8
ATOM      8 C9   MCO A   1      39.916  33.427  42.273  1.00  0.00    +0.064 C 
ATOM      9 O2   MCO A   1      38.698  33.169  41.883  1.00  0.00    -0.548 OA
ATOM     10 O3   MCO A   1      40.403  32.352  42.793  1.00  0.00    -0.548 OA
ENDBRANCH   4   8
ENDBRANCH   1   3
BRANCH   1  11
ATOM     11 C2   MCO A   1      42.478  34.953  45.617  1.00  0.00    +0.085 C 
ATOM     12 C3   MCO A   1      42.961  33.931  45.860  1.00  0.00    +0.019 C 
BRANCH  11  13
ATOM     13 C1   MCO A   1      41.994  35.764  46.827  1.00  0.00    +0.079 C 
BRANCH  13  14
ATOM     14 S    MCO A   1      42.973  36.411  48.179  1.00  0.00    -0.179 SA
ATOM     15  H   UNL     1      42.409  36.038  49.371  1.00  0.00    +0.102 HD
ENDBRANCH  13  14
ENDBRANCH  11  13
ENDBRANCH   1  11
TORSDOF 5
