REMARK SMILES C[C@H](CS)C(=O)N1CCCC1C(=O)[O-]
REMARK SMILES IDX 5 1 6 2 2 3 1 4 3 5 4 6 7 8 8 9 11 10 9 11 10 12 12 13 13 14
REMARK SMILES IDX 14 15
REMARK H PARENT 4 7
ROOT
ATOM      1  C   UNL     1       0.897  -0.621  -0.238  1.00  0.00    +0.226 C 
ATOM      2  O   UNL     1       1.594  -1.562  -0.635  1.00  0.00    -0.275 OA
ENDROOT
BRANCH   1   3
ATOM      3  C   UNL     1       1.527   0.744   0.040  1.00  0.00    +0.085 C 
ATOM      4  C   UNL     1       2.634   1.009  -0.985  1.00  0.00    +0.019 C 
BRANCH   3   5
ATOM      5  C   UNL     1       2.039   0.706   1.484  1.00  0.00    +0.079 C 
BRANCH   5   6
ATOM      6  S   UNL     1       2.722   2.288   2.085  1.00  0.00    -0.179 SA
ATOM      7  H   UNL     1       3.725   2.368   1.200  1.00  0.00    +0.102 HD
ENDBRANCH   5   6
ENDBRANCH   3   5
ENDBRANCH   1   3
BRANCH   1   8
ATOM      8  N   UNL     1      -0.425  -0.802   0.095  1.00  0.00    -0.334 N 
ATOM      9  C   UNL     1      -1.088  -2.065  -0.164  1.00  0.00    +0.120 C 
ATOM     10  C   UNL     1      -1.404   0.239   0.491  1.00  0.00    +0.131 C 
ATOM     11  C   UNL     1      -2.575  -1.781  -0.008  1.00  0.00    +0.024 C 
ATOM     12  C   UNL     1      -2.611  -0.587   0.940  1.00  0.00    +0.033 C 
BRANCH  10  13
ATOM     13  C   UNL     1      -1.859   1.252  -0.611  1.00  0.00    +0.064 C 
ATOM     14  O   UNL     1      -2.721   2.097  -0.229  1.00  0.00    -0.548 OA
ATOM     15  O   UNL     1      -1.304   1.135  -1.741  1.00  0.00    -0.548 OA
ENDBRANCH  10  13
ENDBRANCH   1   8
TORSDOF 5
