REMARK SMILES Cc1nc2n(c(=O)c1CC[NH+]1CCC(c3noc4cc(F)ccc34)CC1)CCCC2
REMARK SMILES IDX 10 1 9 2 8 3 2 4 3 5 6 6 4 7 5 8 7 9 30 10 27 11 29 12 28 13
REMARK SMILES IDX 1 14 11 15 26 16 12 17 25 18 13 19 14 20 15 22 24 23 16 24
REMARK SMILES IDX 18 25 23 26 17 27 19 28 22 29 20 30 21 31
REMARK H PARENT 11 21
ROOT
ATOM      1 C05  8NU A   1       8.798   5.236 -10.556  1.00  0.00    +0.267 C 
ENDROOT
BRANCH   1   2
ATOM      2 C04  8NU A   1       8.206   5.746 -11.897  1.00  0.00    +0.104 C 
BRANCH   2   3
ATOM      3 C03  8NU A   1       8.262   4.600 -12.909  1.00  0.00    +0.044 A 
ATOM      4 C02  8NU A   1       7.144   4.033 -13.365  1.00  0.00    +0.048 A 
ATOM      5 N30  8NU A   1       7.209   2.946 -14.270  1.00  0.00    -0.240 NA
ATOM      6 C22  8NU A   1       9.544   4.089 -13.391  1.00  0.00    +0.257 A 
ATOM      7 C29  8NU A   1       8.311   2.465 -14.703  1.00  0.00    +0.111 A 
ATOM      8 N24  8NU A   1       9.552   3.033 -14.306  1.00  0.00    -0.296 N 
ATOM      9 O23  8NU A   1      10.714   4.653 -12.983  1.00  0.00    -0.269 OA
ATOM     10 C28  8NU A   1       8.257   1.284 -15.641  1.00  0.00    +0.075 C 
ATOM     11 C25  8NU A   1      10.828   2.550 -14.812  1.00  0.00    +0.127 C 
ATOM     12 C27  8NU A   1       9.633   0.613 -15.771  1.00  0.00    +0.010 C 
ATOM     13 C26  8NU A   1      10.659   1.689 -16.072  1.00  0.00    +0.022 C 
ATOM     14 C01  8NU A   1       5.798   4.520 -12.898  1.00  0.00    +0.067 C 
ENDBRANCH   2   3
ENDBRANCH   1   2
BRANCH   1  15
ATOM     15 N06  8NU A   1       8.882   6.272  -9.486  1.00  0.00    -0.335 N 
ATOM     16 C11  8NU A   1       9.363   5.565  -8.280  1.00  0.00    +0.262 C 
ATOM     17 C07  8NU A   1       9.857   7.323  -9.903  1.00  0.00    +0.262 C 
ATOM     18 C10  8NU A   1       9.569   6.528  -7.120  1.00  0.00    +0.072 C 
ATOM     19 C08  8NU A   1      10.085   8.347  -8.777  1.00  0.00    +0.072 C 
ATOM     20 C09  8NU A   1      10.598   7.582  -7.553  1.00  0.00    +0.053 C 
ATOM     21  H   UNL     1       7.978   6.732  -9.309  1.00  0.00    +0.348 HD
BRANCH  20  22
ATOM     22 C12  8NU A   1      10.978   8.513  -6.434  1.00  0.00    +0.095 A 
ATOM     23 C16  8NU A   1      11.346   8.184  -5.148  1.00  0.00    +0.045 A 
ATOM     24 N13  8NU A   1      11.047   9.842  -6.521  1.00  0.00    -0.083 NA
ATOM     25 C15  8NU A   1      11.604   9.387  -4.561  1.00  0.00    +0.170 A 
ATOM     26 C17  8NU A   1      11.480   6.976  -4.482  1.00  0.00    +0.017 A 
ATOM     27 O14  8NU A   1      11.404  10.328  -5.431  1.00  0.00    -0.356 OA
ATOM     28 C21  8NU A   1      12.017   9.471  -3.239  1.00  0.00    +0.090 A 
ATOM     29 C18  8NU A   1      11.893   7.042  -3.152  1.00  0.00    +0.040 A 
ATOM     30 C19  8NU A   1      12.158   8.271  -2.538  1.00  0.00    +0.127 A 
ATOM     31 F20  8NU A   1      12.555   8.290  -1.257  1.00  0.00    -0.207 F 
ENDBRANCH  20  22
ENDBRANCH   1  15
TORSDOF 4
