REMARK SMILES Cc1nc2n(c(=O)c1CC[NH+]1CCC(c3noc4cc(F)ccc34)CC1)CCCC2
REMARK SMILES IDX 10 1 9 2 8 3 2 4 3 5 4 6 6 7 5 8 30 9 7 10 27 11 29 12 28 13
REMARK SMILES IDX 1 14 11 15 12 16 26 17 13 18 25 19 14 20 15 22 16 23 24 24
REMARK SMILES IDX 17 25 23 26 18 27 22 28 19 29 20 30 21 31
REMARK H PARENT 11 21
ROOT
ATOM      1  C   UNL     1       0.602  -1.538  -0.089  1.00  0.00    +0.267 C 
ENDROOT
BRANCH   1   2
ATOM      2  C   UNL     1       1.462  -1.125  -1.292  1.00  0.00    +0.104 C 
BRANCH   2   3
ATOM      3  C   UNL     1       2.873  -0.800  -0.882  1.00  0.00    +0.044 C 
ATOM      4  C   UNL     1       3.992  -1.488  -1.163  1.00  0.00    +0.048 C 
ATOM      5  N   UNL     1       5.239  -1.072  -0.786  1.00  0.00    -0.240 NA
ATOM      6  C   UNL     1       5.373   0.043  -0.143  1.00  0.00    +0.111 C 
ATOM      7  C   UNL     1       3.032   0.473  -0.125  1.00  0.00    +0.257 C 
ATOM      8  N   UNL     1       4.313   0.832   0.231  1.00  0.00    -0.296 N 
ATOM      9  C   UNL     1       6.777   0.439   0.276  1.00  0.00    +0.075 C 
ATOM     10  O   UNL     1       2.020   1.121   0.151  1.00  0.00    -0.269 OA
ATOM     11  C   UNL     1       4.489   2.148   0.839  1.00  0.00    +0.127 C 
ATOM     12  C   UNL     1       6.938   1.919   0.558  1.00  0.00    +0.010 C 
ATOM     13  C   UNL     1       5.838   2.363   1.503  1.00  0.00    +0.022 C 
ATOM     14  C   UNL     1       4.008  -2.795  -1.915  1.00  0.00    +0.067 C 
ENDBRANCH   2   3
ENDBRANCH   1   2
BRANCH   1  15
ATOM     15  N   UNL     1      -0.873  -1.241  -0.338  1.00  0.00    -0.335 N 
ATOM     16  C   UNL     1      -1.205   0.224  -0.154  1.00  0.00    +0.262 C 
ATOM     17  C   UNL     1      -1.758  -2.130   0.516  1.00  0.00    +0.262 C 
ATOM     18  C   UNL     1      -2.607   0.499  -0.688  1.00  0.00    +0.072 C 
ATOM     19  C   UNL     1      -3.164  -1.552   0.671  1.00  0.00    +0.072 C 
ATOM     20  C   UNL     1      -3.558  -0.698  -0.533  1.00  0.00    +0.053 C 
ATOM     21  H   UNL     1      -1.058  -1.480  -1.323  1.00  0.00    +0.348 HD
BRANCH  20  22
ATOM     22  C   UNL     1      -4.998  -0.289  -0.521  1.00  0.00    +0.095 A 
ATOM     23  N   UNL     1      -5.771  -0.659  -1.552  1.00  0.00    -0.083 NA
ATOM     24  C   UNL     1      -5.734   0.464   0.434  1.00  0.00    +0.045 A 
ATOM     25  O   UNL     1      -7.029  -0.149  -1.287  1.00  0.00    -0.356 OA
ATOM     26  C   UNL     1      -5.494   1.102   1.666  1.00  0.00    +0.017 A 
ATOM     27  C   UNL     1      -7.010   0.520  -0.105  1.00  0.00    +0.170 A 
ATOM     28  C   UNL     1      -6.562   1.764   2.289  1.00  0.00    +0.040 A 
ATOM     29  C   UNL     1      -8.091   1.167   0.484  1.00  0.00    +0.090 A 
ATOM     30  C   UNL     1      -7.827   1.788   1.702  1.00  0.00    +0.127 A 
ATOM     31  F   UNL     1      -8.818   2.433   2.331  1.00  0.00    -0.207 F 
ENDBRANCH  20  22
ENDBRANCH   1  15
TORSDOF 4
