REMARK SMILES COC(=O)C1=C(C)NC(C)=C(C(=O)OC)C1c1ccccc1[N+](=O)[O-]
REMARK SMILES IDX 7 1 11 2 9 3 8 4 6 5 5 6 16 7 10 8 3 10 4 11 2 12 1 13 17 14
REMARK SMILES IDX 22 15 18 16 21 17 19 18 20 19 23 20 24 21 25 22 12 23 13 24
REMARK SMILES IDX 14 25 15 26
REMARK H PARENT 8 9
ROOT
ATOM      1 C24  C5U A   1     166.271 190.245 175.043  1.00  0.00    +0.065 C 
ATOM      2 C05  C5U A   1     164.198 193.449 177.268  1.00  0.00    +0.069 C 
ATOM      3 C06  C5U A   1     164.814 192.266 178.005  1.00  0.00    +0.023 C 
ATOM      4 N07  C5U A   1     165.704 191.394 177.275  1.00  0.00    -0.362 N 
ATOM      5 C08  C5U A   1     165.702 191.437 175.837  1.00  0.00    +0.023 C 
ATOM      6 C09  C5U A   1     165.414 192.754 175.129  1.00  0.00    +0.069 C 
ATOM      7 C14  C5U A   1     164.758 193.892 175.913  1.00  0.00    +0.105 C 
ATOM      8 C25  C5U A   1     164.110 191.742 179.267  1.00  0.00    +0.065 C 
ATOM      9  H   UNL     1     166.332 190.750 177.777  1.00  0.00    +0.166 HD
ENDROOT
BRANCH   6  10
ATOM     10 C10  C5U A   1     166.201 193.079 173.850  1.00  0.00    +0.336 C 
ATOM     11 O11  C5U A   1     167.143 192.431 173.558  1.00  0.00    -0.246 OA
BRANCH  10  12
ATOM     12 O12  C5U A   1     165.800 194.134 173.025  1.00  0.00    -0.466 OA
ATOM     13 C13  C5U A   1     164.995 193.699 171.950  1.00  0.00    +0.282 C 
ENDBRANCH  10  12
ENDBRANCH   6  10
BRANCH   7  14
ATOM     14 C15  C5U A   1     163.568 194.406 175.067  1.00  0.00    +0.042 A 
ATOM     15 C20  C5U A   1     163.370 195.776 174.900  1.00  0.00    +0.273 A 
ATOM     16 C16  C5U A   1     162.683 193.501 174.493  1.00  0.00    +0.012 A 
ATOM     17 C19  C5U A   1     162.295 196.239 174.151  1.00  0.00    +0.086 A 
ATOM     18 C17  C5U A   1     161.607 193.961 173.739  1.00  0.00    +0.001 A 
ATOM     19 C18  C5U A   1     161.417 195.330 173.569  1.00  0.00    +0.007 A 
BRANCH  15  20
ATOM     20 N21  C5U A   1     164.293 196.729 175.512  1.00  0.00    +0.063 N 
ATOM     21 O23  C5U A   1     163.893 197.756 175.920  1.00  0.00    -0.258 OA
ATOM     22 O22  C5U A   1     165.652 196.422 175.614  1.00  0.00    -0.258 OA
ENDBRANCH  15  20
ENDBRANCH   7  14
BRANCH   2  23
ATOM     23 C02  C5U A   1     163.323 194.431 178.056  1.00  0.00    +0.336 C 
ATOM     24 O01  C5U A   1     162.698 194.037 178.977  1.00  0.00    -0.246 OA
BRANCH  23  25
ATOM     25 O03  C5U A   1     163.276 195.786 177.686  1.00  0.00    -0.466 OA
ATOM     26 C04  C5U A   1     162.919 196.656 178.738  1.00  0.00    +0.282 C 
ENDBRANCH  23  25
ENDBRANCH   2  23
TORSDOF 6
