REMARK SMILES COC(=O)C1=C(C)NC(C)=C(C(=O)OC)C1c1ccccc1[N+](=O)[O-]
REMARK SMILES IDX 5 1 6 2 7 3 8 4 9 5 10 6 11 7 16 8 3 10 4 11 2 12 1 13 17 14
REMARK SMILES IDX 18 15 22 16 19 17 21 18 20 19 23 20 24 21 25 22 12 23 13 24
REMARK SMILES IDX 14 25 15 26
REMARK H PARENT 8 9
ROOT
ATOM      1  C   UNL     1       1.640  -0.045   0.495  1.00  0.00    +0.069 C 
ATOM      2  C   UNL     1       2.463   0.659  -0.315  1.00  0.00    +0.023 C 
ATOM      3  C   UNL     1       3.944   0.414  -0.462  1.00  0.00    +0.065 C 
ATOM      4  N   UNL     1       1.948   1.701  -1.074  1.00  0.00    -0.362 N 
ATOM      5  C   UNL     1       0.670   2.218  -0.917  1.00  0.00    +0.023 C 
ATOM      6  C   UNL     1       0.410   3.537  -1.601  1.00  0.00    +0.065 C 
ATOM      7  C   UNL     1      -0.224   1.562  -0.142  1.00  0.00    +0.069 C 
ATOM      8  C   UNL     1       0.149   0.263   0.586  1.00  0.00    +0.105 C 
ATOM      9  H   UNL     1       2.628   2.285  -1.563  1.00  0.00    +0.166 HD
ENDROOT
BRANCH   1  10
ATOM     10  C   UNL     1       2.195  -1.040   1.435  1.00  0.00    +0.336 C 
ATOM     11  O   UNL     1       3.052  -0.786   2.267  1.00  0.00    -0.246 OA
BRANCH  10  12
ATOM     12  O   UNL     1       1.641  -2.253   1.195  1.00  0.00    -0.466 OA
ATOM     13  C   UNL     1       2.110  -3.285   2.062  1.00  0.00    +0.282 C 
ENDBRANCH  10  12
ENDBRANCH   1  10
BRANCH   8  14
ATOM     14  C   UNL     1      -0.715  -0.895   0.064  1.00  0.00    +0.042 A 
ATOM     15  C   UNL     1      -0.614  -1.258  -1.298  1.00  0.00    +0.012 A 
ATOM     16  C   UNL     1      -1.643  -1.609   0.850  1.00  0.00    +0.273 A 
ATOM     17  C   UNL     1      -1.406  -2.272  -1.844  1.00  0.00    +0.001 A 
ATOM     18  C   UNL     1      -2.444  -2.626   0.300  1.00  0.00    +0.086 A 
ATOM     19  C   UNL     1      -2.322  -2.953  -1.048  1.00  0.00    +0.007 A 
BRANCH  16  20
ATOM     20  N   UNL     1      -1.807  -1.359   2.279  1.00  0.00    +0.063 N 
ATOM     21  O   UNL     1      -0.785  -1.350   2.978  1.00  0.00    -0.258 OA
ATOM     22  O   UNL     1      -2.965  -1.235   2.702  1.00  0.00    -0.258 OA
ENDBRANCH  16  20
ENDBRANCH   8  14
BRANCH   7  23
ATOM     23  C   UNL     1      -1.612   2.012   0.108  1.00  0.00    +0.336 C 
ATOM     24  O   UNL     1      -2.164   1.886   1.191  1.00  0.00    -0.246 OA
BRANCH  23  25
ATOM     25  O   UNL     1      -2.194   2.462  -1.031  1.00  0.00    -0.466 OA
ATOM     26  C   UNL     1      -3.562   2.838  -0.869  1.00  0.00    +0.282 C 
ENDBRANCH  23  25
ENDBRANCH   7  23
TORSDOF 6
