REMARK SMILES CN1C(=O)CN=C(c2ccccc2)c2cc(Cl)ccc21
REMARK SMILES IDX 20 1 19 2 18 3 16 4 14 5 15 6 17 7 7 8 6 9 8 10 10 11 11 12
REMARK SMILES IDX 9 13 12 14 13 15 5 16 2 18 1 19 3 20 4 21
REMARK H PARENT
REMARK Flexibility Score:   20.900
ROOT
ATOM      1 C6   DZP A   1     145.649 122.477 120.878  1.00  0.00    +0.053 A 
ATOM      2 C7   DZP A   1     145.334 122.593 119.454  1.00  0.00    +0.028 A 
ATOM      3 C8   DZP A   1     145.066 123.872 118.841  1.00  0.00    +0.023 A 
ATOM      4 C9   DZP A   1     145.094 125.064 119.657  1.00  0.00    +0.041 A 
ATOM      5 C13  DZP A   1     145.667 123.681 121.701  1.00  0.00    +0.026 A 
ATOM      6 C14  DZP A   1     145.390 124.973 121.071  1.00  0.00    +0.033 A 
ATOM      7 CL   DZP A   1     144.749 126.706 118.852  1.00  0.00    -0.084 Cl
ENDROOT
BRANCH   5   8
ATOM      8 C5   DZP A   1     146.010 123.505 123.275  1.00  0.00    +0.075 C 
ATOM      9 N15  DZP A   1     147.449 123.149 123.595  1.00  0.00    -0.274 NA
BRANCH   8  10
ATOM     10 C12  DZP A   1     145.299 124.518 124.300  1.00  0.00    +0.000 A 
ATOM     11 C1   DZP A   1     145.031 126.212 126.133  1.00  0.00    +0.001 A 
ATOM     12 C2   DZP A   1     143.591 126.185 125.940  1.00  0.00    +0.000 A 
ATOM     13 C11  DZP A   1     145.889 125.375 125.312  1.00  0.00    +0.010 A 
ATOM     14 C3   DZP A   1     143.002 125.323 124.927  1.00  0.00    +0.001 A 
ATOM     15 C4   DZP A   1     143.856 124.489 124.102  1.00  0.00    +0.010 A 
ENDBRANCH   8  10
BRANCH   9  16
ATOM     16 C17  DZP A   1     148.145 122.234 122.617  1.00  0.00    +0.243 CG0
ATOM     17  G   DZP A   1     147.199 120.984 122.347  1.00  0.00    +0.000 G0
ENDBRANCH   9  16
ENDBRANCH   5   8
BRANCH   1  18
ATOM     18 N2   DZP A   1     145.933 121.096 121.510  1.00  0.00    -0.313 N 
ATOM     19 C20  DZP A   1     145.034 119.902 121.230  1.00  0.00    +0.153 C 
BRANCH  18  20
ATOM     20 C18  DZP A   1     147.199 120.984 122.347  1.00  0.00    +0.248 CG0
ATOM     21 O1   DZP A   1     147.483 119.892 122.859  1.00  0.00    -0.272 OA
ATOM     22  G   DZP A   1     148.145 122.234 122.617  1.00  0.00    +0.000 G0
ENDBRANCH  18  20
ENDBRANCH   1  18
TORSDOF 1
