REMARK SMILES CC(=O)Nc1nnc(S(N)(=O)=O)s1
REMARK SMILES IDX 5 1 6 2 7 3 8 4 13 5 4 6 2 7 3 8 1 9 9 11 11 12 12 13 10 14
REMARK H PARENT 4 10 10 15 10 16
ROOT
ATOM      1  C   UNL     1      -0.496  -0.463   0.016  1.00  0.00    +0.213 A 
ATOM      2  N   UNL     1       0.283  -1.526  -0.013  1.00  0.00    -0.119 NA
ATOM      3  N   UNL     1       1.622  -1.194   0.072  1.00  0.00    -0.123 NA
ATOM      4  C   UNL     1       1.774   0.112   0.160  1.00  0.00    +0.249 A 
ATOM      5  S   UNL     1       0.337   1.020   0.146  1.00  0.00    -0.062 S 
ENDROOT
BRANCH   1   6
ATOM      6  N   UNL     1      -1.863  -0.565  -0.057  1.00  0.00    -0.301 N 
ATOM      7  C   UNL     1      -2.770   0.468  -0.023  1.00  0.00    +0.223 C 
ATOM      8  O   UNL     1      -2.526   1.662   0.100  1.00  0.00    -0.275 OA
ATOM      9  C   UNL     1      -4.197  -0.014  -0.124  1.00  0.00    +0.114 C 
ATOM     10  H   UNL     1      -2.192  -1.518  -0.134  1.00  0.00    +0.172 HD
ENDBRANCH   1   6
BRANCH   4  11
ATOM     11  S   UNL     1       3.319   0.946   0.284  1.00  0.00    +0.267 S 
ATOM     12  O   UNL     1       3.464   1.702  -0.938  1.00  0.00    -0.205 OA
ATOM     13  O   UNL     1       3.342   1.549   1.597  1.00  0.00    -0.205 OA
BRANCH  11  14
ATOM     14  N   UNL     1       4.534  -0.230   0.272  1.00  0.00    -0.223 NA
ATOM     15  H   UNL     1       4.550  -0.739  -0.612  1.00  0.00    +0.137 HD
ATOM     16  H   UNL     1       4.475  -0.833   1.093  1.00  0.00    +0.137 HD
ENDBRANCH  11  14
ENDBRANCH   4  11
TORSDOF 3
