REMARK SMILES CC(=O)Nc1nnc(S(N)(=O)=O)s1
REMARK SMILES IDX 8 1 5 2 6 3 7 4 13 5 9 6 12 7 11 8 10 9 4 12 2 13 3 14 1 16
REMARK H PARENT 10 10 10 11 4 15
ROOT
ATOM      1 C1   AZM A   1      -5.095   2.081  15.800  1.00  0.00    +0.249 A 
ATOM      2 C2   AZM A   1      -4.692   3.959  14.342  1.00  0.00    +0.213 A 
ATOM      3 N2   AZM A   1      -3.597   3.326  14.709  1.00  0.00    -0.119 NA
ATOM      4 N3   AZM A   1      -3.820   2.185  15.542  1.00  0.00    -0.123 NA
ATOM      5 S2   AZM A   1      -6.073   3.304  15.033  1.00  0.00    -0.062 S 
ENDROOT
BRANCH   1   6
ATOM      6 S1   AZM A   1      -5.854   0.821  16.793  1.00  0.00    +0.267 S 
ATOM      7 O2   AZM A   1      -7.246   1.049  16.567  1.00  0.00    -0.205 OA
ATOM      8 O1   AZM A   1      -5.327   1.056  18.082  1.00  0.00    -0.205 OA
BRANCH   6   9
ATOM      9 N1   AZM A   1      -5.424  -0.555  16.188  1.00  0.00    -0.223 NA
ATOM     10  H   UNL     1      -5.217  -1.216  16.951  1.00  0.00    +0.137 HD
ATOM     11  H   UNL     1      -6.188  -0.929  15.607  1.00  0.00    +0.137 HD
ENDBRANCH   6   9
ENDBRANCH   1   6
BRANCH   2  12
ATOM     12 N4   AZM A   1      -4.685   5.076  13.508  1.00  0.00    -0.301 N 
ATOM     13 C3   AZM A   1      -5.842   5.662  13.147  1.00  0.00    +0.223 C 
ATOM     14 O3   AZM A   1      -6.936   5.292  13.550  1.00  0.00    -0.275 OA
ATOM     15  H   UNL     1      -3.790   5.455  13.166  1.00  0.00    +0.172 HD
ATOM     16 C4   AZM A   1      -5.697   6.765  12.120  1.00  0.00    +0.114 C 
ENDBRANCH   2  12
TORSDOF 3
