REMARK SMILES COc1cc2c(cc1OC)C(=O)[C@H](CC1CC[NH+](Cc3ccccc3)CC1)C2
REMARK SMILES IDX 14 1 13 2 8 3 3 4 7 5 4 6 6 7 5 8 11 9 28 10 12 11 9 12
REMARK SMILES IDX 10 13 2 14 1 15 15 16 16 17 27 18 17 19 26 20 18 21 19 23
REMARK SMILES IDX 20 24 21 25 25 26 22 27 24 28 23 29
REMARK H PARENT 18 22
ROOT
ATOM      1 C10  E20 A   1     -13.970 -44.894  26.642  1.00  0.00    +0.016 C 
ENDROOT
BRANCH   1   2
ATOM      2 C8   E20 A   1     -14.502 -43.478  26.419  1.00  0.00    +0.066 C 
ATOM      3 C1   E20 A   1     -18.530 -41.928  24.258  1.00  0.00    +0.161 A 
ATOM      4 C2   E20 A   1     -18.970 -41.862  25.566  1.00  0.00    +0.161 A 
ATOM      5 C6   E20 A   1     -17.234 -42.369  23.979  1.00  0.00    +0.062 A 
ATOM      6 C3   E20 A   1     -18.125 -42.222  26.615  1.00  0.00    +0.055 A 
ATOM      7 C5   E20 A   1     -16.370 -42.740  25.037  1.00  0.00    +0.025 A 
ATOM      8 C4   E20 A   1     -16.817 -42.659  26.338  1.00  0.00    -0.033 A 
ATOM      9 C7   E20 A   1     -14.962 -43.221  24.996  1.00  0.00    +0.166 C 
ATOM     10 C9   E20 A   1     -15.710 -43.107  27.282  1.00  0.00    +0.048 C 
ATOM     11 O24  E20 A   1     -14.278 -43.362  23.959  1.00  0.00    -0.294 OA
BRANCH   3  12
ATOM     12 O25  E20 A   1     -19.387 -41.562  23.244  1.00  0.00    -0.493 OA
ATOM     13 C26  E20 A   1     -18.995 -41.561  21.931  1.00  0.00    +0.278 C 
ENDBRANCH   3  12
BRANCH   4  14
ATOM     14 O27  E20 A   1     -20.264 -41.407  25.839  1.00  0.00    -0.493 OA
ATOM     15 C28  E20 A   1     -20.658 -41.266  27.175  1.00  0.00    +0.278 C 
ENDBRANCH   4  14
ENDBRANCH   1   2
BRANCH   1  16
ATOM     16 C11  E20 A   1     -12.925 -44.965  27.776  1.00  0.00    +0.001 C 
ATOM     17 C12  E20 A   1     -13.505 -44.756  29.141  1.00  0.00    +0.065 C 
ATOM     18 C16  E20 A   1     -12.257 -46.328  27.808  1.00  0.00    +0.065 C 
ATOM     19 C13  E20 A   1     -12.529 -44.933  30.274  1.00  0.00    +0.262 C 
ATOM     20 C15  E20 A   1     -11.189 -46.351  28.862  1.00  0.00    +0.262 C 
ATOM     21 N14  E20 A   1     -11.729 -46.166  30.212  1.00  0.00    -0.331 N 
ATOM     22  H   UNL     1     -12.355 -46.975  30.335  1.00  0.00    +0.348 HD
BRANCH  21  23
ATOM     23 C17  E20 A   1     -10.962 -46.545  31.395  1.00  0.00    +0.299 C 
BRANCH  23  24
ATOM     24 C18  E20 A   1      -9.698 -45.708  31.539  1.00  0.00    +0.006 A 
ATOM     25 C19  E20 A   1      -9.740 -44.445  32.158  1.00  0.00    +0.009 A 
ATOM     26 C23  E20 A   1      -8.475 -46.200  31.051  1.00  0.00    +0.009 A 
ATOM     27 C20  E20 A   1      -8.576 -43.676  32.286  1.00  0.00    +0.001 A 
ATOM     28 C22  E20 A   1      -7.317 -45.434  31.176  1.00  0.00    +0.001 A 
ATOM     29 C21  E20 A   1      -7.363 -44.171  31.800  1.00  0.00    +0.000 A 
ENDBRANCH  23  24
ENDBRANCH  21  23
ENDBRANCH   1  16
TORSDOF 6
