REMARK SMILES COc1cc2c(cc1OC)C(=O)[C@H](CC1CC[NH+](Cc3ccccc3)CC1)C2
REMARK SMILES IDX 14 1 13 2 3 3 4 4 8 5 5 6 7 7 6 8 28 9 11 10 12 11 2 12 1 13
REMARK SMILES IDX 9 14 10 15 15 16 16 17 27 18 17 19 26 20 18 21 19 23 20 24
REMARK SMILES IDX 21 25 25 26 22 27 24 28 23 29
REMARK H PARENT 18 22
ROOT
ATOM      1  C   UNL     1       0.189  -0.040   0.545  1.00  0.00    +0.016 C 
ENDROOT
BRANCH   1   2
ATOM      2  C   UNL     1       1.337  -0.895  -0.010  1.00  0.00    +0.066 C 
ATOM      3  C   UNL     1       6.023  -0.817   0.778  1.00  0.00    +0.161 A 
ATOM      4  C   UNL     1       4.836  -1.360   1.294  1.00  0.00    +0.055 A 
ATOM      5  C   UNL     1       5.989   0.046  -0.353  1.00  0.00    +0.161 A 
ATOM      6  C   UNL     1       3.634  -1.043   0.679  1.00  0.00    -0.033 A 
ATOM      7  C   UNL     1       4.771   0.359  -0.962  1.00  0.00    +0.062 A 
ATOM      8  C   UNL     1       3.627  -0.201  -0.424  1.00  0.00    +0.025 A 
ATOM      9  C   UNL     1       2.262  -1.493   1.075  1.00  0.00    +0.048 C 
ATOM     10  C   UNL     1       2.250  -0.035  -0.863  1.00  0.00    +0.166 C 
ATOM     11  O   UNL     1       1.887   0.687  -1.776  1.00  0.00    -0.294 OA
BRANCH   3  12
ATOM     12  O   UNL     1       7.270  -1.057   1.302  1.00  0.00    -0.493 OA
ATOM     13  C   UNL     1       7.373  -1.963   2.391  1.00  0.00    +0.278 C 
ENDBRANCH   3  12
BRANCH   5  14
ATOM     14  O   UNL     1       7.206   0.526  -0.774  1.00  0.00    -0.493 OA
ATOM     15  C   UNL     1       7.228   1.366  -1.919  1.00  0.00    +0.278 C 
ENDBRANCH   5  14
ENDBRANCH   1   2
BRANCH   1  16
ATOM     16  C   UNL     1      -1.064  -0.853   0.935  1.00  0.00    +0.001 C 
ATOM     17  C   UNL     1      -2.036   0.012   1.750  1.00  0.00    +0.065 C 
ATOM     18  C   UNL     1      -1.789  -1.451  -0.292  1.00  0.00    +0.065 C 
ATOM     19  C   UNL     1      -2.704   1.131   0.948  1.00  0.00    +0.262 C 
ATOM     20  C   UNL     1      -3.105  -0.758  -0.650  1.00  0.00    +0.262 C 
ATOM     21  N   UNL     1      -2.931   0.724  -0.488  1.00  0.00    -0.331 N 
ATOM     22  H   UNL     1      -2.065   0.958  -0.992  1.00  0.00    +0.348 HD
BRANCH  21  23
ATOM     23  C   UNL     1      -3.980   1.557  -1.203  1.00  0.00    +0.299 C 
BRANCH  23  24
ATOM     24  C   UNL     1      -5.407   1.338  -0.774  1.00  0.00    +0.006 A 
ATOM     25  C   UNL     1      -6.182   0.320  -1.352  1.00  0.00    +0.009 A 
ATOM     26  C   UNL     1      -5.994   2.155   0.205  1.00  0.00    +0.009 A 
ATOM     27  C   UNL     1      -7.500   0.110  -0.943  1.00  0.00    +0.001 A 
ATOM     28  C   UNL     1      -7.312   1.943   0.612  1.00  0.00    +0.001 A 
ATOM     29  C   UNL     1      -8.062   0.918   0.041  1.00  0.00    +0.000 A 
ENDBRANCH  23  24
ENDBRANCH  21  23
ENDBRANCH   1  16
TORSDOF 6
