REMARK SMILES C[NH+](C)CC/C=C1\c2ccccc2COc2ccccc21
REMARK SMILES IDX 4 1 2 2 1 3 3 4 5 6 6 7 7 8 8 9 21 10 9 11 13 12 20 13 16 14
REMARK SMILES IDX 10 15 12 16 14 17 19 18 15 19 17 20 11 21 18 22
REMARK H PARENT 2 5
ROOT
ATOM      1 C04  5EH A   1      15.730  33.765  19.724  1.00  0.00    +0.265 C 
ENDROOT
BRANCH   1   2
ATOM      2 N02  5EH A   1      14.525  32.943  19.512  1.00  0.00    -0.340 N 
ATOM      3 C01  5EH A   1      14.569  31.755  20.378  1.00  0.00    +0.332 C 
ATOM      4 C03  5EH A   1      14.452  32.511  18.106  1.00  0.00    +0.332 C 
ATOM      5  H   UNL     1      13.695  33.508  19.743  1.00  0.00    +0.347 HD
ENDBRANCH   1   2
BRANCH   1   6
ATOM      6 C05  5EH A   1      15.364  35.138  20.280  1.00  0.00    +0.089 C 
BRANCH   6   7
ATOM      7 C06  5EH A   1      15.773  35.211  21.734  1.00  0.00    -0.012 C 
ATOM      8 C07  5EH A   1      16.751  36.014  22.195  1.00  0.00    -0.011 C 
ATOM      9 C08  5EH A   1      17.526  36.943  21.311  1.00  0.00    -0.011 A 
ATOM     10 C21  5EH A   1      17.092  36.021  23.659  1.00  0.00    +0.024 A 
ATOM     11 C09  5EH A   1      18.420  36.473  20.347  1.00  0.00    +0.009 A 
ATOM     12 C13  5EH A   1      17.392  38.303  21.537  1.00  0.00    -0.003 A 
ATOM     13 C20  5EH A   1      17.350  34.796  24.279  1.00  0.00    +0.012 A 
ATOM     14 C16  5EH A   1      17.176  37.205  24.405  1.00  0.00    +0.127 A 
ATOM     15 C10  5EH A   1      19.149  37.384  19.580  1.00  0.00    +0.001 A 
ATOM     16 C12  5EH A   1      18.119  39.218  20.775  1.00  0.00    +0.008 A 
ATOM     17 C14  5EH A   1      16.426  38.762  22.605  1.00  0.00    +0.266 C 
ATOM     18 C19  5EH A   1      17.686  34.733  25.630  1.00  0.00    +0.001 A 
ATOM     19 O15  5EH A   1      16.962  38.468  23.894  1.00  0.00    -0.488 OA
ATOM     20 C17  5EH A   1      17.517  37.134  25.758  1.00  0.00    +0.047 A 
ATOM     21 C11  5EH A   1      18.997  38.757  19.793  1.00  0.00    +0.000 A 
ATOM     22 C18  5EH A   1      17.770  35.908  26.373  1.00  0.00    +0.004 A 
ENDBRANCH   6   7
ENDBRANCH   1   6
TORSDOF 3
