REMARK SMILES C[NH+](C)CC/C=C1\c2ccccc2COc2ccccc21
REMARK SMILES IDX 4 1 2 2 1 3 3 4 5 6 6 7 7 8 8 9 21 10 9 11 13 12 20 13 16 14
REMARK SMILES IDX 10 15 12 16 14 17 19 18 15 19 17 20 11 21 18 22
REMARK H PARENT 2 5
ROOT
ATOM      1  C   UNL     1      -2.755  -0.948   0.073  1.00  0.00    +0.265 C 
ENDROOT
BRANCH   1   2
ATOM      2  N   UNL     1      -3.708   0.232   0.082  1.00  0.00    -0.340 N 
ATOM      3  C   UNL     1      -3.248   1.407   0.898  1.00  0.00    +0.332 C 
ATOM      4  C   UNL     1      -4.217   0.636  -1.271  1.00  0.00    +0.332 C 
ATOM      5  H   UNL     1      -4.533  -0.120   0.585  1.00  0.00    +0.347 HD
ENDBRANCH   1   2
BRANCH   1   6
ATOM      6  C   UNL     1      -1.539  -0.817  -0.852  1.00  0.00    +0.089 C 
BRANCH   6   7
ATOM      7  C   UNL     1      -0.540   0.253  -0.492  1.00  0.00    -0.012 C 
ATOM      8  C   UNL     1       0.627   0.105   0.180  1.00  0.00    -0.011 C 
ATOM      9  C   UNL     1       1.040  -1.227   0.668  1.00  0.00    -0.011 A 
ATOM     10  C   UNL     1       1.571   1.257   0.216  1.00  0.00    +0.024 A 
ATOM     11  C   UNL     1       0.409  -1.857   1.747  1.00  0.00    +0.009 A 
ATOM     12  C   UNL     1       2.139  -1.839   0.044  1.00  0.00    -0.003 A 
ATOM     13  C   UNL     1       1.102   2.508   0.668  1.00  0.00    +0.012 A 
ATOM     14  C   UNL     1       2.936   1.134  -0.117  1.00  0.00    +0.127 A 
ATOM     15  C   UNL     1       0.839  -3.115   2.171  1.00  0.00    +0.001 A 
ATOM     16  C   UNL     1       2.566  -3.100   0.478  1.00  0.00    +0.008 A 
ATOM     17  C   UNL     1       2.865  -1.093  -1.047  1.00  0.00    +0.266 C 
ATOM     18  C   UNL     1       1.953   3.612   0.764  1.00  0.00    +0.001 A 
ATOM     19  O   UNL     1       3.606   0.008  -0.526  1.00  0.00    -0.488 OA
ATOM     20  C   UNL     1       3.781   2.248  -0.002  1.00  0.00    +0.047 A 
ATOM     21  C   UNL     1       1.910  -3.738   1.532  1.00  0.00    +0.000 A 
ATOM     22  C   UNL     1       3.294   3.481   0.427  1.00  0.00    +0.004 A 
ENDBRANCH   6   7
ENDBRANCH   1   6
TORSDOF 3
