REMARK SMILES Cc1ccc(-c2cc(C(F)(F)F)nn2-c2ccc(S(N)(=O)=O)cc2)cc1
REMARK SMILES IDX 18 1 17 2 16 3 15 4 24 5 23 6 19 7 21 8 22 9 20 10 14 13
REMARK SMILES IDX 6 14 13 15 7 16 8 17 5 18 4 19 25 20 3 21 26 22 2 23 1 24
REMARK SMILES IDX 9 25 10 26 11 27 12 28
REMARK H PARENT 20 11 20 12
ROOT
ATOM      1 C15  CEL A   1      27.679 -21.706 -17.131  1.00  0.00    +0.082 A 
ATOM      2 C14  CEL A   1      28.218 -22.829 -16.556  1.00  0.00    +0.024 A 
ATOM      3 C13  CEL A   1      29.584 -22.964 -16.543  1.00  0.00    +0.030 A 
ATOM      4 C12  CEL A   1      30.341 -21.967 -17.109  1.00  0.00    +0.065 A 
ATOM      5 C17  CEL A   1      29.796 -20.853 -17.697  1.00  0.00    +0.030 A 
ATOM      6 C16  CEL A   1      28.434 -20.714 -17.707  1.00  0.00    +0.024 A 
ENDROOT
BRANCH   1   7
ATOM      7 S1   CEL A   1      25.931 -21.467 -17.155  1.00  0.00    +0.238 S 
ATOM      8 O2   CEL A   1      25.772 -20.039 -17.291  1.00  0.00    -0.207 OA
ATOM      9 O1   CEL A   1      25.436 -22.106 -15.949  1.00  0.00    -0.207 OA
BRANCH   7  10
ATOM     10 N3   CEL A   1      25.378 -22.226 -18.605  1.00  0.00    -0.225 NA
ATOM     11  H   UNL     1      24.788 -23.036 -18.365  1.00  0.00    +0.137 HD
ATOM     12  H   UNL     1      24.828 -21.552 -19.157  1.00  0.00    +0.137 HD
ENDBRANCH   7  10
ENDBRANCH   1   7
BRANCH   4  13
ATOM     13 N2   CEL A   1      31.724 -22.006 -17.132  1.00  0.00    -0.233 N 
ATOM     14 C3   CEL A   1      32.622 -22.574 -16.260  1.00  0.00    +0.075 A 
ATOM     15 N1   CEL A   1      32.290 -21.424 -18.201  1.00  0.00    -0.163 NA
ATOM     16 C2   CEL A   1      33.843 -22.337 -16.837  1.00  0.00    +0.064 A 
ATOM     17 C1   CEL A   1      33.589 -21.637 -18.031  1.00  0.00    +0.167 A 
BRANCH  14  18
ATOM     18 C5   CEL A   1      32.417 -23.237 -14.985  1.00  0.00    +0.000 A 
ATOM     19 C10  CEL A   1      31.570 -22.735 -14.016  1.00  0.00    +0.010 A 
ATOM     20 C6   CEL A   1      33.152 -24.373 -14.743  1.00  0.00    +0.010 A 
ATOM     21 C9   CEL A   1      31.446 -23.390 -12.819  1.00  0.00    +0.004 A 
ATOM     22 C7   CEL A   1      33.023 -25.030 -13.549  1.00  0.00    +0.004 A 
ATOM     23 C8   CEL A   1      32.170 -24.541 -12.587  1.00  0.00    -0.051 A 
ATOM     24 C11  CEL A   1      32.056 -25.290 -11.306  1.00  0.00    +0.044 C 
ENDBRANCH  14  18
BRANCH  17  25
ATOM     25 C4   CEL A   1      34.554 -21.135 -19.002  1.00  0.00    +0.435 C 
ATOM     26 F3   CEL A   1      34.560 -21.752 -20.210  1.00  0.00    -0.164 F 
ATOM     27 F2   CEL A   1      34.302 -19.828 -19.223  1.00  0.00    -0.164 F 
ATOM     28 F1   CEL A   1      35.816 -21.214 -18.544  1.00  0.00    -0.164 F 
ENDBRANCH  17  25
ENDBRANCH   4  13
TORSDOF 5
